 Entering Gaussian System, Link 0=/fslapps/chem/gaussian/g03/g03
 Initial command:
 /fslapps/chem/gaussian/g03/l1.exe /bluescr/calls/scripts/testfiles/test/Gau-2444.inp -scrdir=/bluescr/calls/scripts/testfiles/test/
 Entering Link 1 = /fslapps/chem/gaussian/g03/l1.exe PID=      2445.
  
 Copyright (c) 1988,1990,1992,1993,1995,1998,2003,2004, Gaussian, Inc.
                  All Rights Reserved.
  
 This is the Gaussian(R) 03 program.  It is based on the
 the Gaussian(R) 98 system (copyright 1998, Gaussian, Inc.),
 the Gaussian(R) 94 system (copyright 1995, Gaussian, Inc.),
 the Gaussian 92(TM) system (copyright 1992, Gaussian, Inc.),
 the Gaussian 90(TM) system (copyright 1990, Gaussian, Inc.),
 the Gaussian 88(TM) system (copyright 1988, Gaussian, Inc.),
 the Gaussian 86(TM) system (copyright 1986, Carnegie Mellon
 University), and the Gaussian 82(TM) system (copyright 1983,
 Carnegie Mellon University). Gaussian is a federally registered
 trademark of Gaussian, Inc.
  
 This software contains proprietary and confidential information,
 including trade secrets, belonging to Gaussian, Inc.
  
 This software is provided under written license and may be
 used, copied, transmitted, or stored only in accord with that
 written license.
  
 The following legend is applicable only to US Government
 contracts under FAR:
  
                    RESTRICTED RIGHTS LEGEND
  
 Use, reproduction and disclosure by the US Government is
 subject to restrictions as set forth in subparagraphs (a)
 and (c) of the Commercial Computer Software - Restricted
 Rights clause in FAR 52.227-19.
  
 Gaussian, Inc.
 340 Quinnipiac St., Bldg. 40, Wallingford CT 06492
  
  
 ---------------------------------------------------------------
 Warning -- This program may not be used in any manner that
 competes with the business of Gaussian, Inc. or will provide
 assistance to any competitor of Gaussian, Inc.  The licensee
 of this program is prohibited from giving any competitor of
 Gaussian, Inc. access to this program.  By using this program,
 the user acknowledges that Gaussian, Inc. is engaged in the
 business of creating and licensing software in the field of
 computational chemistry and represents and warrants to the
 licensee that it is not a competitor of Gaussian, Inc. and that
 it will not use this program in any manner prohibited above.
 ---------------------------------------------------------------
  

 Cite this work as:
 Gaussian 03, Revision D.01,
 M. J. Frisch, G. W. Trucks, H. B. Schlegel, G. E. Scuseria, 
 M. A. Robb, J. R. Cheeseman, J. A. Montgomery, Jr., T. Vreven, 
 K. N. Kudin, J. C. Burant, J. M. Millam, S. S. Iyengar, J. Tomasi, 
 V. Barone, B. Mennucci, M. Cossi, G. Scalmani, N. Rega, 
 G. A. Petersson, H. Nakatsuji, M. Hada, M. Ehara, K. Toyota, 
 R. Fukuda, J. Hasegawa, M. Ishida, T. Nakajima, Y. Honda, O. Kitao, 
 H. Nakai, M. Klene, X. Li, J. E. Knox, H. P. Hratchian, J. B. Cross, 
 V. Bakken, C. Adamo, J. Jaramillo, R. Gomperts, R. E. Stratmann, 
 O. Yazyev, A. J. Austin, R. Cammi, C. Pomelli, J. W. Ochterski, 
 P. Y. Ayala, K. Morokuma, G. A. Voth, P. Salvador, J. J. Dannenberg, 
 V. G. Zakrzewski, S. Dapprich, A. D. Daniels, M. C. Strain, 
 O. Farkas, D. K. Malick, A. D. Rabuck, K. Raghavachari, 
 J. B. Foresman, J. V. Ortiz, Q. Cui, A. G. Baboul, S. Clifford, 
 J. Cioslowski, B. B. Stefanov, G. Liu, A. Liashenko, P. Piskorz, 
 I. Komaromi, R. L. Martin, D. J. Fox, T. Keith, M. A. Al-Laham, 
 C. Y. Peng, A. Nanayakkara, M. Challacombe, P. M. W. Gill, 
 B. Johnson, W. Chen, M. W. Wong, C. Gonzalez, and J. A. Pople, 
 Gaussian, Inc., Wallingford CT, 2004.
 
 ******************************************
 Gaussian 03:  AM64L-G03RevD.01 13-Oct-2005
                 1-Jan-2009 
 ******************************************
 % mem=2000MB
 % chk=test
 ----------------------------------------------------------------------
 # B3LYP/3-21G opt=(calcfc) nosymm scfcon=6 scfcyc=300 optcyc=100 scf=d
 irect
 ----------------------------------------------------------------------
 1/6=100,10=4,14=-1,18=20,26=3,38=1/1,3;
 2/9=110,15=1,17=6,18=5,40=1/2;
 3/5=5,11=2,16=1,25=1,30=1,74=-5/1,2,3;
 4//1;
 5/5=2,6=6,7=300,38=5/2;
 8/6=4,10=90,11=11/1;
 11/6=1,8=1,9=11,15=111,16=1,31=1/1,2,10;
 10/6=1,7=6,31=1/2;
 6/7=2,8=2,9=2,10=2,28=1/1;
 7/10=1,18=20,25=1,30=1/1,2,3,16;
 1/6=100,10=4,14=-1,18=20/3(3);
 2/9=110,15=1/2;
 6/7=2,8=2,9=2,10=2,19=2,28=1/1;
 99//99;
 2/9=110,15=1/2;
 3/5=5,11=2,16=1,25=1,30=1,74=-5/1,2,3;
 4/5=5,16=3/1;
 5/5=2,6=6,7=300,38=5/2;
 7/30=1/1,2,3,16;
 1/6=100,14=-1,18=20/3(-5);
 2/9=110,15=1/2;
 6/7=2,8=2,9=2,10=2,19=2,28=1/1;
 99/9=1/99;
 ------
 Title.
 ------
 Symbolic Z-matrix:
 Charge =  0 Multiplicity = 2
 6                     0.56278   0.37452   1.75291 
 1                     1.08392   1.31045   1.96111 
 1                    -0.49934   0.51007   1.96731 
 1                     0.95446  -0.39766   2.42112 
 6                     0.77785  -0.00107   0.27509 
 6                     0.08163  -1.34458  -0.06704 
 1                     0.47636  -2.16527   0.53562 
 1                     0.15619  -1.55648  -1.13221 
 6                     2.25229  -0.21204   0.00132 
 1                     2.73403  -0.95948   0.62795 
 6                     2.95427   0.44631  -0.91523 
 1                     2.48773   1.19758  -1.54025 
 1                     4.01243   0.25412  -1.05187 
 8                    -1.33528  -1.28005   0.27066 
 8                    -2.10884  -1.11999  -0.78658 
 8                     0.29821   1.01351  -0.58459 
 1                    -0.60408   1.27543  -0.32748 
 

 GradGradGradGradGradGradGradGradGradGradGradGradGradGradGradGradGradGrad
 Berny optimization.
 Initialization pass.
                           ----------------------------
                           !    Initial Parameters    !
                           ! (Angstroms and Degrees)  !
 --------------------------                            --------------------------
 ! Name  Definition              Value          Derivative Info.                !
 --------------------------------------------------------------------------------
 ! R1    R(1,2)                  1.0913         calculate D2E/DX2 analytically  !
 ! R2    R(1,3)                  1.092          calculate D2E/DX2 analytically  !
 ! R3    R(1,4)                  1.0937         calculate D2E/DX2 analytically  !
 ! R4    R(1,5)                  1.5399         calculate D2E/DX2 analytically  !
 ! R5    R(5,6)                  1.5514         calculate D2E/DX2 analytically  !
 ! R6    R(5,9)                  1.5144         calculate D2E/DX2 analytically  !
 ! R7    R(5,16)                 1.4137         calculate D2E/DX2 analytically  !
 ! R8    R(6,7)                  1.092          calculate D2E/DX2 analytically  !
 ! R9    R(6,8)                  1.0886         calculate D2E/DX2 analytically  !
 ! R10   R(6,14)                 1.458          calculate D2E/DX2 analytically  !
 ! R11   R(9,10)                 1.0878         calculate D2E/DX2 analytically  !
 ! R12   R(9,11)                 1.329          calculate D2E/DX2 analytically  !
 ! R13   R(11,12)                1.0829         calculate D2E/DX2 analytically  !
 ! R14   R(11,13)                1.0841         calculate D2E/DX2 analytically  !
 ! R15   R(14,15)                1.3198         calculate D2E/DX2 analytically  !
 ! R16   R(16,17)                0.9741         calculate D2E/DX2 analytically  !
 ! A1    A(2,1,3)              108.6967         calculate D2E/DX2 analytically  !
 ! A2    A(2,1,4)              108.5378         calculate D2E/DX2 analytically  !
 ! A3    A(2,1,5)              109.0012         calculate D2E/DX2 analytically  !
 ! A4    A(3,1,4)              108.4221         calculate D2E/DX2 analytically  !
 ! A5    A(3,1,5)              110.7656         calculate D2E/DX2 analytically  !
 ! A6    A(4,1,5)              111.3531         calculate D2E/DX2 analytically  !
 ! A7    A(1,5,6)              111.1121         calculate D2E/DX2 analytically  !
 ! A8    A(1,5,9)              110.0869         calculate D2E/DX2 analytically  !
 ! A9    A(1,5,16)             111.1719         calculate D2E/DX2 analytically  !
 ! A10   A(6,5,9)              106.0466         calculate D2E/DX2 analytically  !
 ! A11   A(6,5,16)             109.5818         calculate D2E/DX2 analytically  !
 ! A12   A(9,5,16)             108.6857         calculate D2E/DX2 analytically  !
 ! A13   A(5,6,7)              111.5252         calculate D2E/DX2 analytically  !
 ! A14   A(5,6,8)              110.7093         calculate D2E/DX2 analytically  !
 ! A15   A(5,6,14)             110.2863         calculate D2E/DX2 analytically  !
 ! A16   A(7,6,8)              111.6503         calculate D2E/DX2 analytically  !
 ! A17   A(7,6,14)             104.8747         calculate D2E/DX2 analytically  !
 ! A18   A(8,6,14)             107.5658         calculate D2E/DX2 analytically  !
 ! A19   A(5,9,10)             115.0073         calculate D2E/DX2 analytically  !
 ! A20   A(5,9,11)             124.7447         calculate D2E/DX2 analytically  !
 ! A21   A(10,9,11)            120.246          calculate D2E/DX2 analytically  !
 ! A22   A(9,11,12)            120.9403         calculate D2E/DX2 analytically  !
 ! A23   A(9,11,13)            120.9745         calculate D2E/DX2 analytically  !
 ! A24   A(12,11,13)           118.0823         calculate D2E/DX2 analytically  !
 ! A25   A(6,14,15)            112.9192         calculate D2E/DX2 analytically  !
 ! A26   A(5,16,17)            110.289          calculate D2E/DX2 analytically  !
 ! D1    D(2,1,5,6)            178.7415         calculate D2E/DX2 analytically  !
 ! D2    D(2,1,5,9)             61.5674         calculate D2E/DX2 analytically  !
 ! D3    D(2,1,5,16)           -58.9269         calculate D2E/DX2 analytically  !
 ! D4    D(3,1,5,6)            -61.7102         calculate D2E/DX2 analytically  !
 ! D5    D(3,1,5,9)           -178.8843         calculate D2E/DX2 analytically  !
 ! D6    D(3,1,5,16)            60.6213         calculate D2E/DX2 analytically  !
 ! D7    D(4,1,5,6)             59.0282         calculate D2E/DX2 analytically  !
 ! D8    D(4,1,5,9)            -58.1459         calculate D2E/DX2 analytically  !
 ! D9    D(4,1,5,16)          -178.6403         calculate D2E/DX2 analytically  !
 ! D10   D(1,5,6,7)            -60.45           calculate D2E/DX2 analytically  !
 ! D11   D(1,5,6,8)            174.5827         calculate D2E/DX2 analytically  !
 ! D12   D(1,5,6,14)            55.6535         calculate D2E/DX2 analytically  !
 ! D13   D(9,5,6,7)             59.163          calculate D2E/DX2 analytically  !
 ! D14   D(9,5,6,8)            -65.8044         calculate D2E/DX2 analytically  !
 ! D15   D(9,5,6,14)           175.2664         calculate D2E/DX2 analytically  !
 ! D16   D(16,5,6,7)           176.3017         calculate D2E/DX2 analytically  !
 ! D17   D(16,5,6,8)            51.3344         calculate D2E/DX2 analytically  !
 ! D18   D(16,5,6,14)          -67.5949         calculate D2E/DX2 analytically  !
 ! D19   D(1,5,9,10)            56.5976         calculate D2E/DX2 analytically  !
 ! D20   D(1,5,9,11)          -122.8895         calculate D2E/DX2 analytically  !
 ! D21   D(6,5,9,10)           -63.6842         calculate D2E/DX2 analytically  !
 ! D22   D(6,5,9,11)           116.8287         calculate D2E/DX2 analytically  !
 ! D23   D(16,5,9,10)          178.5783         calculate D2E/DX2 analytically  !
 ! D24   D(16,5,9,11)           -0.9088         calculate D2E/DX2 analytically  !
 ! D25   D(1,5,16,17)          -49.0278         calculate D2E/DX2 analytically  !
 ! D26   D(6,5,16,17)           74.1853         calculate D2E/DX2 analytically  !
 ! D27   D(9,5,16,17)         -170.3459         calculate D2E/DX2 analytically  !
 ! D28   D(5,6,14,15)          103.3622         calculate D2E/DX2 analytically  !
 ! D29   D(7,6,14,15)         -136.4447         calculate D2E/DX2 analytically  !
 ! D30   D(8,6,14,15)          -17.466          calculate D2E/DX2 analytically  !
 ! D31   D(5,9,11,12)           -0.0997         calculate D2E/DX2 analytically  !
 ! D32   D(5,9,11,13)          179.2671         calculate D2E/DX2 analytically  !
 ! D33   D(10,9,11,12)        -179.5616         calculate D2E/DX2 analytically  !
 ! D34   D(10,9,11,13)          -0.1948         calculate D2E/DX2 analytically  !
 --------------------------------------------------------------------------------
 Trust Radius=3.00D-01 FncErr=1.00D-07 GrdErr=1.00D-06
 Number of steps in this run= 100 maximum allowed number of steps= 102.
 GradGradGradGradGradGradGradGradGradGradGradGradGradGradGradGradGradGrad

                          Input orientation:                          
 ---------------------------------------------------------------------
 Center     Atomic     Atomic              Coordinates (Angstroms)
 Number     Number      Type              X           Y           Z
 ---------------------------------------------------------------------
